19
Properties=species:S:1:pos:R:3:forces:R:3 energy=-46804.06903707782 pbc="F F F"
Fe       0.00000427       0.00000795      -0.00002140       0.00000974      -0.00005338       0.00023399
O        2.05757731       0.01201687      -0.19551366       0.00012480      -0.00004473       0.00021956
H        2.64412906       0.80629575      -0.24214316       0.00020829      -0.00029999       0.00020728
H        2.65253605      -0.77465691      -0.26118035      -0.00056115       0.00029937       0.00074412
O       -0.00856922       2.06651930       0.02365492      -0.00060758      -0.00003466      -0.00045964
H        0.06357448       2.65176301       0.81698650      -0.00052185      -0.00011996       0.00032505
H       -0.08549702       2.66803362      -0.75697109      -0.00033750       0.00023390       0.00078166
O       -2.05756724      -0.01201690       0.19550904      -0.00017902      -0.00000572      -0.00019751
H       -2.65253153       0.77464891       0.26119176       0.00054997      -0.00019000      -0.00075204
H       -2.64412356      -0.80629212       0.24214665      -0.00014506       0.00025964      -0.00020732
O        0.00857076      -2.06650957      -0.02365177       0.00060048      -0.00009138       0.00028908
H        0.08550052      -2.66803388       0.75696254       0.00035345      -0.00018351      -0.00053573
H       -0.06358300      -2.65177381      -0.81696688       0.00052236       0.00021579      -0.00042723
O        0.19467038      -0.02324407       2.05701471      -0.00004842      -0.00039750       0.00032532
H        1.03726165      -0.02535970       2.57392460       0.00005458      -0.00034904      -0.00027429
H       -0.53686165      -0.03263936       2.72178876       0.00037352      -0.00069319      -0.00015110
O       -0.19467132       0.02324502      -2.05701628       0.00001192       0.00041735      -0.00037994
H        0.53684562       0.03267394      -2.72180032      -0.00019939       0.00067587       0.00004688
H       -1.03726557       0.02532196      -2.57391455      -0.00020915       0.00036114       0.00021186
